VARIABLES= X,Y,U,V
ZONE I=21,J=21 F=POINT
0.321429 0.000000 0.000000 0.000000 
0.296429 0.000000 1.788099 -0.014222 
0.264286 0.000000 1.467864 0.022525 
0.250000 0.000000 1.295616 0.040706 
0.235714 0.000000 1.190290 0.051103 
0.221429 0.000000 1.126197 0.055496 
0.207143 0.000000 1.086760 0.056019 
0.192857 0.000000 1.061881 0.054310 
0.178571 0.000000 1.045552 0.051426 
0.164286 0.000000 1.034269 0.047959 
0.150000 0.000000 1.026030 0.044204 
0.135714 0.000000 1.019716 0.040292 
0.121429 0.000000 1.014704 0.036277 
0.107143 0.000000 1.010648 0.032187 
0.092857 0.000000 1.007357 0.028045 
0.078571 0.000000 1.004737 0.023867 
0.064286 0.000000 1.002772 0.019663 
0.050000 0.000000 1.001453 0.015406 
0.035714 0.000000 1.000682 0.011101 
0.021429 0.000000 1.000309 0.006792 
0.007143 0.000000 1.000147 0.002476 
0.321866 0.001380 0.000000 0.000000 
0.305497 0.003035 1.788099 -0.014222 
0.281346 0.006025 1.467864 0.022525 
0.266500 0.008602 1.295616 0.040706 
0.252583 0.011056 1.190290 0.051103 
0.238927 0.013484 1.126197 0.055496 
0.225314 0.015941 1.086760 0.056019 
0.211649 0.018464 1.061881 0.054310 
0.197884 0.021080 1.045552 0.051426 
0.183984 0.023813 1.034269 0.047959 
0.169924 0.026686 1.026030 0.044204 
0.155680 0.029726 1.019716 0.040292 
0.141226 0.032968 1.014704 0.036277 
0.126534 0.036453 1.010648 0.032187 
0.111568 0.040239 1.007357 0.028045 
0.096285 0.044403 1.004737 0.023867 
0.080622 0.049057 1.002772 0.019663 
0.064489 0.054371 1.001453 0.015406 
0.047736 0.060611 1.000682 0.011101 
0.030067 0.068261 1.000309 0.006792 
0.010477 0.078670 1.000147 0.002476 
0.323571 0.004004 0.000000 0.000000 
0.317937 0.007512 1.290846 0.014989 
0.305748 0.014293 1.188514 0.048708 
0.293254 0.020763 1.134577 0.058472 
0.281583 0.027165 1.091807 0.062921 
0.270156 0.033641 1.061962 0.063228 
0.258713 0.040297 1.042474 0.060782 
0.247116 0.047210 1.030251 0.056890 
0.235281 0.054448 1.022701 0.052461 
0.223142 0.062077 1.017954 0.047985 
0.210643 0.070165 1.014787 0.043647 
0.197722 0.078793 1.012461 0.039457 
0.184311 0.088060 1.010558 0.035353 
0.170322 0.098092 1.008862 0.031261 
0.155639 0.109055 1.007279 0.027117 
0.140100 0.121182 1.005799 0.022862 
0.123460 0.134809 1.004411 0.018435 
0.105315 0.150465 1.003111 0.013919 
0.084907 0.169078 1.001978 0.009469 
0.060457 0.192677 1.001052 0.005248 
0.023451 0.230272 1.000263 0.001384 
0.326814 0.006236 0.000000 0.000000 
0.324150 0.009977 0.796459 0.029978 
0.317888 0.017788 0.966310 0.069924 
0.310417 0.026099 1.007035 0.085053 
0.302597 0.034753 1.014509 0.091525 
0.294636 0.043781 1.013958 0.092346 
0.286531 0.053249 1.012564 0.089252 
0.278249 0.063231 1.012112 0.083711 
0.269755 0.073805 1.012652 0.076879 
0.261016 0.085054 1.013780 0.069537 
0.251995 0.097070 1.015062 0.062113 
0.242648 0.109960 1.016165 0.054799 
0.232920 0.123845 1.016876 0.047663 
0.222736 0.138874 1.017099 0.040725 
0.211989 0.155228 1.016803 0.033991 
0.200515 0.173134 1.015986 0.027468 
0.188059 0.192897 1.014655 0.021186 
0.174185 0.214960 1.012816 0.015216 
0.158074 0.240074 1.010449 0.009718 
0.137836 0.269935 1.007391 0.004889 
0.104841 0.312820 1.002806 0.001054 
0.331279 0.007857 0.000000 0.000000 
0.330001 0.011654 0.487904 0.031421 
0.326934 0.019788 0.792295 0.072212 
0.323110 0.028850 0.910093 0.094378 
0.318939 0.038635 0.961726 0.106649 
0.314615 0.049091 0.987826 0.111725 
0.310222 0.060236 1.003305 0.111268 
0.305800 0.072116 1.013871 0.106748 
0.301375 0.084794 1.021757 0.099595 
0.296969 0.098338 1.027995 0.090918 
0.292604 0.112825 1.033009 0.081430 
0.288305 0.128333 1.036892 0.071522 
0.284098 0.144945 1.039461 0.061412 
0.280006 0.162739 1.040801 0.051377 
0.276051 0.181789 1.040949 0.041586 
0.272245 0.202154 1.039882 0.032192 
0.268584 0.223875 1.037504 0.023385 
0.265029 0.246967 1.033621 0.015428 
0.261481 0.271422 1.027906 0.008644 
0.257703 0.297256 1.019669 0.003427 
0.252857 0.324905 1.007761 0.000370 
0.336527 0.008710 0.000000 0.000000 
0.336174 0.012532 0.331866 0.021095 
0.335346 0.020797 0.661902 0.052580 
0.334373 0.030184 0.826101 0.075418 
0.333423 0.040515 0.913305 0.091657 
0.332606 0.051710 0.964590 0.101687 
0.332000 0.063756 0.998095 0.106272 
0.331668 0.076669 1.021378 0.105925 
0.331675 0.090478 1.038347 0.101459 
0.332089 0.105221 1.050877 0.093965 
0.332990 0.120929 1.060118 0.084552 
0.334471 0.137630 1.066771 0.074108 
0.336642 0.155339 1.071253 0.063260 
0.339635 0.174051 1.073813 0.052434 
0.343612 0.193738 1.074529 0.041912 
0.348779 0.214343 1.073280 0.031912 
0.355402 0.235775 1.069711 0.022630 
0.363836 0.257911 1.063175 0.014257 
0.374580 0.280615 1.052702 0.007010 
0.388366 0.303766 1.037016 0.001317 
0.406399 0.327363 1.014773 -0.001478 
0.342045 0.008710 0.000000 0.000000 
0.342499 0.012526 0.253036 0.004657 
0.343671 0.020814 0.558951 0.017136 
0.345371 0.030309 0.743730 0.032056 
0.347611 0.040840 0.857906 0.047306 
0.350423 0.052313 0.932170 0.060060 
0.353856 0.064687 0.982910 0.068478 
0.357979 0.077947 1.018787 0.071958 
0.362873 0.092087 1.044717 0.070913 
0.368640 0.107104 1.063641 0.066349 
0.375403 0.122986 1.077419 0.059422 
0.383311 0.139715 1.087242 0.051151 
0.392544 0.157260 1.093848 0.042307 
0.403327 0.175576 1.097639 0.033426 
0.415942 0.194611 1.098720 0.024888 
0.430746 0.214312 1.096913 0.016988 
0.448206 0.234643 1.091763 0.009979 
0.468941 0.255616 1.082530 0.004075 
0.493804 0.277367 1.068189 -0.000567 
0.524053 0.300300 1.047401 -0.003720 
0.562024 0.325711 1.018071 -0.004082 
0.347293 0.007857 0.000000 0.000000 
0.348634 0.011622 0.225735 -0.009673 
0.352042 0.019811 0.498001 -0.016753 
0.356790 0.029197 0.676807 -0.014693 
0.362716 0.039584 0.797543 -0.006461 
0.369757 0.050855 0.881911 0.003466 
0.377921 0.062942 0.942550 0.011731 
0.387258 0.075797 0.986997 0.016692 
0.397855 0.089382 1.019973 0.018125 
0.409825 0.103659 1.044569 0.016651 
0.423314 0.118591 1.062871 0.013207 
0.438497 0.134142 1.076282 0.008695 
0.455592 0.150281 1.085718 0.003834 
0.474861 0.166988 1.091718 -0.000853 
0.496624 0.184276 1.094510 -0.004982 
0.521283 0.202206 1.094046 -0.008242 
0.549345 0.220937 1.090005 -0.010353 
0.581490 0.240799 1.081769 -0.011058 
0.618697 0.262452 1.068350 -0.010161 
0.662640 0.287303 1.048183 -0.007703 
0.718283 0.320028 1.017376 -0.004184 
0.351757 0.006236 0.000000 0.000000 
0.354344 0.009873 0.236649 -0.015140 
0.360883 0.017724 0.468800 -0.034794 
0.369829 0.026577 0.622629 -0.044693 
0.380692 0.036201 0.732265 -0.045677 
0.393239 0.046466 0.813281 -0.041891 
0.407388 0.057288 0.874470 -0.036936 
0.423132 0.068603 0.921358 -0.032919 
0.440515 0.080359 0.957670 -0.030583 
0.459616 0.092514 0.986028 -0.029786 
0.480542 0.105040 1.008308 -0.030001 
0.503429 0.117922 1.025841 -0.030645 
0.528442 0.131177 1.039532 -0.031248 
0.555782 0.144859 1.049949 -0.031469 
0.585702 0.159083 1.057381 -0.031058 
0.618527 0.174060 1.061865 -0.029799 
0.654712 0.190160 1.063179 -0.027456 
0.694961 0.208031 1.060801 -0.023735 
0.740537 0.228896 1.053784 -0.018235 
0.794354 0.255549 1.040398 -0.010474 
0.870255 0.300588 1.014177 -0.001683 
0.355001 0.004004 0.000000 0.000000 
0.359922 0.007265 0.295813 -0.007797 
0.372016 0.014028 0.475798 -0.030168 
0.387695 0.021208 0.591728 -0.045673 
0.405713 0.028701 0.677951 -0.052610 
0.425594 0.036436 0.744981 -0.053765 
0.447129 0.044360 0.798246 -0.052068 
0.470221 0.052433 0.841187 -0.049556 
0.494833 0.060631 0.876228 -0.047262 
0.520960 0.068940 0.905174 -0.045479 
0.548621 0.077367 0.929379 -0.044110 
0.577855 0.085938 0.949842 -0.042930 
0.608719 0.094707 0.967263 -0.041726 
0.641299 0.103770 0.982106 -0.040341 
0.675716 0.113272 0.994637 -0.038652 
0.712157 0.123440 1.004959 -0.036527 
0.750918 0.134620 1.013022 -0.033784 
0.792513 0.147377 1.018617 -0.030123 
0.837937 0.162715 1.021394 -0.025017 
0.889550 0.182847 1.021149 -0.017417 
0.958664 0.217786 1.013219 -0.007971 
0.356706 0.001380 0.000000 0.000000 
0.367991 0.002867 0.424950 0.012306 
0.391938 0.005831 0.528988 -0.003675 
0.417962 0.008792 0.605105 -0.015550 
0.445172 0.011769 0.665018 -0.022602 
0.473266 0.014755 0.713733 -0.025801 
0.502107 0.017741 0.754189 -0.026642 
0.531626 0.020718 0.788284 -0.026375 
0.561780 0.023687 0.817375 -0.025774 
0.592543 0.026653 0.842490 -0.025193 
0.623901 0.029627 0.864432 -0.024727 
0.655847 0.032632 0.883812 -0.024356 
0.688382 0.035698 0.901077 -0.024038 
0.721519 0.038871 0.916542 -0.023739 
0.755283 0.042216 0.930417 -0.023442 
0.789722 0.045818 0.942827 -0.023119 
0.824920 0.049800 0.953821 -0.022710 
0.861018 0.054339 0.963382 -0.022085 
0.898258 0.059702 0.971447 -0.021008 
0.937071 0.066329 0.977840 -0.019137 
0.978469 0.075192 0.982250 -0.016677 
0.356706 -0.001380 0.000000 0.000000 
0.367991 -0.002867 0.389266 0.021396 
0.391938 -0.005831 0.516756 0.029613 
0.417962 -0.008792 0.592697 0.033908 
0.445172 -0.011769 0.649104 0.036527 
0.473266 -0.014755 0.694327 0.037757 
0.502107 -0.017741 0.732040 0.037750 
0.531626 -0.020718 0.764234 0.036754 
0.561780 -0.023687 0.792114 0.035071 
0.592543 -0.026653 0.816489 0.032980 
0.623901 -0.029627 0.837957 0.030698 
0.655847 -0.032632 0.856995 0.028366 
0.688382 -0.035698 0.873995 0.026072 
0.721519 -0.038871 0.889271 0.023864 
0.755283 -0.042216 0.903060 0.021774 
0.789722 -0.045818 0.915528 0.019820 
0.824920 -0.049800 0.926763 0.017996 
0.861018 -0.054339 0.936783 0.016277 
0.898258 -0.059702 0.945548 0.014619 
0.937071 -0.066329 0.953039 0.013058 
0.978469 -0.075192 0.959143 0.011699 
0.355001 -0.004004 0.000000 0.000000 
0.359922 -0.007265 0.390608 0.029611 
0.372016 -0.014028 0.585288 0.047698 
0.387695 -0.021208 0.683582 0.054997 
0.405713 -0.028701 0.748182 0.057745 
0.425594 -0.036436 0.795726 0.057800 
0.447129 -0.044360 0.832838 0.056309 
0.470221 -0.052433 0.862790 0.054074 
0.494833 -0.060631 0.887447 0.051591 
0.520960 -0.068940 0.907996 0.049106 
0.548621 -0.077367 0.925265 0.046694 
0.577855 -0.085938 0.939872 0.044332 
0.608719 -0.094707 0.952293 0.041958 
0.641299 -0.103770 0.962901 0.039500 
0.675716 -0.113272 0.971979 0.036883 
0.712157 -0.123440 0.979734 0.034024 
0.750918 -0.134620 0.986301 0.030813 
0.792513 -0.147377 0.991733 0.027071 
0.837937 -0.162715 0.995996 0.022470 
0.889550 -0.182847 0.998927 0.016404 
0.958664 -0.217786 1.000615 0.007352 
0.351757 -0.006236 0.000000 0.000000 
0.354344 -0.009873 0.326073 0.023118 
0.360883 -0.017724 0.594977 0.037525 
0.369829 -0.026577 0.734244 0.039982 
0.380692 -0.036201 0.818746 0.038635 
0.393239 -0.046466 0.875717 0.036266 
0.407388 -0.057288 0.916759 0.033967 
0.423132 -0.068603 0.947569 0.032126 
0.440515 -0.080359 0.971270 0.030788 
0.459616 -0.092514 0.989732 0.029842 
0.480542 -0.105040 1.004160 0.029122 
0.503429 -0.117922 1.015374 0.028465 
0.528442 -0.131177 1.023951 0.027729 
0.555782 -0.144859 1.030301 0.026792 
0.585702 -0.159083 1.034703 0.025547 
0.618527 -0.174060 1.037319 0.023886 
0.654712 -0.190160 1.038185 0.021685 
0.694961 -0.208031 1.037164 0.018774 
0.740537 -0.228896 1.033821 0.014879 
0.794354 -0.255549 1.027007 0.009515 
0.870255 -0.300588 1.011603 0.002334 
0.347293 -0.007857 0.000000 0.000000 
0.348634 -0.011622 0.276603 0.011196 
0.352042 -0.019811 0.584445 0.014595 
0.356790 -0.029197 0.756208 0.009311 
0.362716 -0.039584 0.858042 0.002832 
0.369757 -0.050855 0.923070 -0.002061 
0.377921 -0.062942 0.967063 -0.004776 
0.387258 -0.075797 0.998056 -0.005580 
0.397855 -0.089382 1.020439 -0.004985 
0.409825 -0.103659 1.036773 -0.003488 
0.423314 -0.118591 1.048623 -0.001481 
0.438497 -0.134142 1.056982 0.000740 
0.455592 -0.150281 1.062491 0.002953 
0.474861 -0.166988 1.065551 0.004976 
0.496624 -0.184276 1.066390 0.006659 
0.521283 -0.202206 1.065096 0.007871 
0.549345 -0.220937 1.061618 0.008495 
0.581490 -0.240799 1.055730 0.008430 
0.618697 -0.262452 1.046909 0.007594 
0.662640 -0.287303 1.033991 0.005990 
0.718283 -0.320028 1.013402 0.003521 
0.342045 -0.008710 0.000000 0.000000 
0.342499 -0.012526 0.256284 -0.001652 
0.343671 -0.020814 0.575881 -0.012291 
0.345371 -0.030309 0.763101 -0.026029 
0.347611 -0.040840 0.873712 -0.037210 
0.350423 -0.052313 0.942125 -0.043894 
0.353856 -0.064687 0.986292 -0.046206 
0.357979 -0.077947 1.015792 -0.045169 
0.362873 -0.092087 1.035947 -0.041937 
0.368640 -0.107104 1.049851 -0.037421 
0.375403 -0.122986 1.059342 -0.032237 
0.383311 -0.139715 1.065539 -0.026782 
0.392544 -0.157260 1.069112 -0.021318 
0.403327 -0.175576 1.070427 -0.016047 
0.415942 -0.194611 1.069631 -0.011137 
0.430746 -0.214312 1.066705 -0.006736 
0.448206 -0.234643 1.061501 -0.002958 
0.468941 -0.255616 1.053775 0.000121 
0.493804 -0.277367 1.043188 0.002452 
0.524053 -0.300300 1.029242 0.003856 
0.562024 -0.325711 1.010859 0.003273 
0.336527 -0.008710 0.000000 0.000000 
0.336174 -0.012532 0.259764 -0.011483 
0.335346 -0.020797 0.574708 -0.033454 
0.334373 -0.030184 0.760745 -0.054160 
0.333423 -0.040515 0.871208 -0.069192 
0.332606 -0.051710 0.938745 -0.077332 
0.332000 -0.063756 0.981273 -0.078937 
0.331668 -0.076669 1.008708 -0.075769 
0.331675 -0.090478 1.026649 -0.069769 
0.332089 -0.105221 1.038562 -0.062353 
0.332990 -0.120929 1.046429 -0.054375 
0.334471 -0.137630 1.051420 -0.046309 
0.336642 -0.155339 1.054239 -0.038406 
0.339635 -0.174051 1.055266 -0.030818 
0.343612 -0.193738 1.054651 -0.023674 
0.348779 -0.214343 1.052370 -0.017104 
0.355402 -0.235775 1.048250 -0.011242 
0.363836 -0.257911 1.042004 -0.006215 
0.374580 -0.280615 1.033303 -0.002169 
0.388366 -0.303766 1.021899 0.000614 
0.406399 -0.327363 1.007814 0.001417 
0.331279 -0.007857 0.000000 0.000000 
0.330001 -0.011654 0.318642 -0.014545 
0.326934 -0.019788 0.624354 -0.041208 
0.323110 -0.028850 0.783606 -0.065599 
0.318939 -0.038635 0.874354 -0.082417 
0.314615 -0.049091 0.929425 -0.090719 
0.310222 -0.060236 0.964397 -0.091765 
0.305800 -0.072116 0.987461 -0.087618 
0.301375 -0.084794 1.003196 -0.080275 
0.296969 -0.098338 1.013966 -0.071374 
0.292604 -0.112825 1.021207 -0.062045 
0.288305 -0.128333 1.025929 -0.052930 
0.284098 -0.144945 1.028966 -0.044278 
0.280006 -0.162739 1.030623 -0.036116 
0.276051 -0.181789 1.031087 -0.028461 
0.272245 -0.202154 1.030442 -0.021360 
0.268584 -0.223875 1.028678 -0.014904 
0.265029 -0.246967 1.025678 -0.009247 
0.261481 -0.271422 1.021188 -0.004651 
0.257703 -0.297256 1.014869 -0.001489 
0.252857 -0.324905 1.006067 -0.000016 
0.326814 -0.006236 0.000000 0.000000 
0.324150 -0.009977 0.477891 -0.008368 
0.317888 -0.017788 0.745184 -0.030724 
0.310417 -0.026099 0.850551 -0.053812 
0.302597 -0.034753 0.905449 -0.069733 
0.294636 -0.043781 0.937786 -0.077206 
0.286531 -0.053249 0.958474 -0.077670 
0.278249 -0.063231 0.972778 -0.073382 
0.269755 -0.073805 0.983323 -0.066499 
0.261016 -0.085054 0.991374 -0.058644 
0.251995 -0.097070 0.997563 -0.050823 
0.242648 -0.109960 1.002249 -0.043518 
0.232920 -0.123845 1.005681 -0.036852 
0.222736 -0.138874 1.008032 -0.030758 
0.211989 -0.155228 1.009442 -0.025126 
0.200515 -0.173134 1.010031 -0.019870 
0.188059 -0.192897 1.009904 -0.014968 
0.174185 -0.214960 1.009129 -0.010459 
0.158074 -0.240074 1.007718 -0.006419 
0.137836 -0.269935 1.005614 -0.003036 
0.104841 -0.312820 1.002358 -0.000655 
0.323571 -0.004004 0.000000 0.000000 
0.317937 -0.007512 0.804924 0.001231 
0.305748 -0.014293 0.953820 -0.008477 
0.293254 -0.020763 0.974907 -0.024479 
0.281583 -0.027165 0.980272 -0.036236 
0.270156 -0.033641 0.980767 -0.041834 
0.258713 -0.040297 0.980852 -0.042120 
0.247116 -0.047210 0.982039 -0.038899 
0.235281 -0.054448 0.984398 -0.033985 
0.223142 -0.062077 0.987440 -0.028745 
0.210643 -0.070165 0.990599 -0.023985 
0.197722 -0.078793 0.993446 -0.020028 
0.184311 -0.088060 0.995734 -0.016869 
0.170322 -0.098092 0.997382 -0.014335 
0.155639 -0.109055 0.998428 -0.012208 
0.140100 -0.121182 0.999005 -0.010288 
0.123460 -0.134809 0.999250 -0.008401 
0.105315 -0.150465 0.999258 -0.006410 
0.084907 -0.169078 0.999151 -0.004325 
0.060457 -0.192677 0.999143 -0.002224 
0.023451 -0.230272 0.999459 -0.000332 
0.321866 -0.001380 0.000000 0.000000 
0.305497 -0.003035 1.498083 -0.004883 
0.281346 -0.006025 1.306923 0.003868 
0.266500 -0.008602 1.211624 0.000692 
0.252583 -0.011056 1.139576 -0.006522 
0.238927 -0.013484 1.089333 -0.014427 
0.225314 -0.015941 1.056527 -0.021484 
0.211649 -0.018464 1.036298 -0.027122 
0.197884 -0.021080 1.024565 -0.031287 
0.183984 -0.023813 1.018265 -0.034135 
0.169924 -0.026686 1.015232 -0.035840 
0.155680 -0.029726 1.014002 -0.036513 
0.141226 -0.032968 1.013611 -0.036194 
0.126534 -0.036453 1.013444 -0.034877 
0.111568 -0.040239 1.013111 -0.032554 
0.096285 -0.044403 1.012343 -0.029245 
0.080622 -0.049057 1.010907 -0.025034 
0.064489 -0.054371 1.008673 -0.020259 
0.047736 -0.060611 1.005942 -0.015303 
0.030067 -0.068261 1.003186 -0.009876 
0.010477 -0.078670 1.000833 -0.003827 
